LAMMPS Description

               7499 atoms
           0 bonds
           0 angles
           0 dihedrals
           0 impropers

           2 atom types
           0 bond types
           0 angle types
           0 dihedral types
           0 improper types

0.0    60.8210106     xlo xhi
0.0    60.8210106     ylo yhi
0.0    60.8210106     zlo zhi

Masses

  1  18.015
  2  20.00

Atoms

           1           1           1           0   12.0234013       6.67309856      0.591119409    
           2           2           1           0  0.341141403       3.16851926      0.828175366    
           3           3           1           0   23.6040268       13.7336273       9.30689144    
           4           4           1           0   12.6623878      0.480160594       3.54256225    
           5           5           1           0   10.4321413       1.80306315       4.74837542    
           6           6           1           0   8.15573215       1.04960632       3.77168107    
           7           7           1           0   13.8465719       4.05997896      0.406320244    
           8           8           1           0   12.6757069       1.22290373       1.01213455    
           9           9           1           0   6.74717903      0.891319752       9.38200569    
          10          10           1           0   24.5824547       11.2994490       9.42658782E-02
          11          11           1           0   18.6066685      0.762087286       3.13571239    
          12          12           1           0   21.3346119      0.854066908       2.22503328    
          13          13           1           0   27.9535789       5.66655970       2.87847590    
          14          14           1           0  0.793568254       13.9712553       2.07821155    
          15          15           1           0   3.64559937       13.0231161       11.5482063    
          16          16           1           0   27.8161850       2.58939981       2.69287443    
          17          17           1           0   25.0800285       14.9791203       11.3926878    
          18          18           1           0   12.7916317       7.44035578       10.8374529    
          19          19           1           0   18.8301239       10.3475389      0.386088103    
          20          20           1           0   2.78677630       7.82267666       3.30674720    
          21          21           1           0   4.87066793       3.27625751       2.42664886    
          22          22           1           0   19.5819931       14.6263580       5.73536634    
          23          23           1           0   8.82670975       5.25193071       4.28702354    
          24          24           1           0   9.01841736       6.97203445      0.930798709    
          25          25           1           0   16.8325787       6.76019430       4.09762096    
          26          26           1           0   3.46774030       4.58713865      0.638967276    
          27          27           1           0   3.28004670      0.736664057       3.45099616    
          28          28           1           0   25.3697815       2.73544312       3.91926312    
          29          29           1           0   24.6697922       4.36548901       1.49884260    
          30          30           1           0   25.8806171       6.96364117       1.98996627    
          31          31           1           0   22.0501709       3.26082706       2.88092709    
          32          32           1           0   2.94997120       7.27759886      0.766709626    
          33          33           1           0   2.11306787       10.3996019       2.85134387    
          34          34           1           0  0.237060219       1.55701184       7.27011824    
          35          35           1           0   6.88214064       8.68043518       1.90681171    
          36          36           1           0   7.55476046       11.4390945       1.76602328    
          37          37           1           0   6.91115236       11.5628033       9.69535542    
          38          38           1           0   17.1546268       9.20392132       5.58378887    
          39          39           1           0   16.5415497       11.3204327       4.03938484    
          40          40           1           0   19.1640930       7.23526764       2.61732888    
          41          41           1           0   22.8249702       8.45807362       2.50680494    
          42          42           1           0   20.4764271       9.28493500       3.58250952    
          43          43           1           0   24.4932289       10.8444471       2.83102942    
          44          44           1           0   12.6019917      0.282040417       10.2577667    
          45          45           1           0   5.83281422       8.37797260       4.29497337    
          46          46           1           0   5.03680658       12.6173191       1.65643597    
          47          47           1           0   10.1184263       2.18046355       1.33019197    
          48          48           1           0   26.4355488       4.83185196       11.3780909    
          49          49           1           0  0.206964180       1.35268974       10.6144218    
          50          50           1           0   9.31327820       12.7178564       3.43815088    
          51          51           1           0   12.1688242       12.8231363       1.66099751    
          52          52           1           0   20.4901123       11.7523222       2.17054367    
          53          53           1           0   4.86593628       14.9917107      0.361506104    
          54          54           1           0   20.3959599       3.74355149       11.9007254    
          55          55           1           0   24.9644699      0.125741959       4.62881947    
          56          56           1           0   27.5036869       14.1847973       3.12854147    
          57          57           1           0   11.2889271       10.4218626       7.64964104    
          58          58           1           0   25.8523369       13.9974079       1.19102132    
          59          59           1           0   18.6576977      0.407963008      0.334455967    
          60          60           1           0  0.955850840       1.70658290       2.73439097    
          61          61           1           0   16.7050381       3.96701407      0.205089673    
          62          62           1           0   2.35019064       4.77022839       6.51356506    
          63          63           1           0   4.40034533      0.603841305       8.10373116    
          64          64           1           0   4.29940081       3.53741097       5.05204868    
          65          65           1           0   23.0406418       11.6733160       11.7783537    
          66          66           1           0   4.19586515       12.8709421       8.92961884    
          67          67           1           0   7.41803455       3.60348058       2.75304461    
          68          68           1           0   11.3134985       4.51400137       5.25800705    
          69          69           1           0   10.6685534      0.320363104       7.00712776    
          70          70           1           0   17.1687984       3.04864120       3.07346201    
          71          71           1           0   15.0701694       1.41147316       4.34158039    
          72          72           1           0   3.03398323       12.8831072       3.42066503    
          73          73           1           0   27.9172688       1.98318458       6.00282669    
          74          74           1           0   19.1354465      0.936594903       6.42725992    
          75          75           1           0   29.7313175       10.0643568       1.47230637    
          76          76           1           0   28.3884487       4.69724941       5.84443092    
          77          77           1           0   23.0258007       6.48905468      0.320636809    
          78          78           1           0   11.8203201       9.40876675      0.954135656    
          79          79           1           0  0.868152976       6.16573000       4.37771368    
          80          80           1           0   5.87690306       6.10959196       6.10582161    
          81          81           1           0   6.58490849       1.81980717       6.02966118    
          82          82           1           0   14.5607929       6.71013880       6.69408226    
          83          83           1           0   17.9609928       4.71767282       5.24558115    
          84          84           1           0   20.6694126       4.60123730       4.96409512    
          85          85           1           0   21.3412399       2.56266284       6.91960621    
          86          86           1           0   22.1080723       6.56264782       6.07480860    
          87          87           1           0   24.4964523       6.92860794       4.57881832    
          88          88           1           0   25.5165424       4.57494450       5.61031246    
          89          89           1           0   28.5684204       8.62022209       3.65247202    
          90          90           1           0   28.8433914       5.42615271       8.57278156    
          91          91           1           0   1.08758307       10.3250360       5.34593582    
          92          92           1           0   4.91458702       10.0564499       6.43984985    
          93          93           1           0   8.86873722       8.09631062       4.58498573    
          94          94           1           0   7.99431372       12.0617180       7.20029545    
          95          95           1           0   8.20852566       9.15070343       7.25369644    
          96          96           1           0   14.8098555       6.58381367       1.95361352    
          97          97           1           0   13.1176929       6.93067598       4.15580845    
          98          98           1           0   12.5750475       9.88834095       5.18611622    
          99          99           1           0   15.8941717       8.73213387       7.65432453    
         100         100           1           0   19.4826126       5.91789007       8.11546898    
         101         101           1           0   19.9928989       8.68420601       6.54500961    
         102         102           1           0   25.9696598       8.08396435       6.54434109    
         103         103           1           0   27.0795212       11.2662411       3.45044899    
         104         104           1           0   28.6181107       9.47323704       6.19182253    
         105         105           1           0   2.44102097       14.2357054       5.60079432    
         106         106           1           0   10.5081682       9.90378952       3.47411442    
         107         107           1           0   2.68945026       11.7852879       6.83305788    
         108         108           1           0   6.61866426       12.3503141       4.87250471    
         109         109           1           0   3.66097474       11.0144415      -2.62098406E-02
         110         110           1           0   15.8998289       13.7686605      0.957699835    
         111         111           1           0   13.9211388       11.9445782       3.79693413    
         112         112           1           0   18.7876110       13.3767900       3.01700187    
         113         113           1           0   21.8585243       12.7822046       6.41509628    
         114         114           1           0   23.3506470       14.9451208       1.80104399    
         115         115           1           0   22.6278496       12.3870506       3.78341961    
         116         116           1           0   30.4383621       10.1686649       9.06695271    
         117         117           1           0   28.5949974       13.7257214       7.39863300    
         118         118           1           0   29.8440800       12.1368933       5.35903025    
         119         119           1           0   2.38404369       2.48363209       8.31052208    
         120         120           1           0  -1.72058381E-02   3.17509413       4.82598305    
         121         121           1           0   16.5388756       11.0602398       1.33991122    
         122         122           1           0   30.6463699      0.825219452       4.92030430    
         123         123           1           0   13.5387564       2.84354639       6.52244520    
         124         124           1           0   7.15674734       5.98618031       12.0103245    
         125         125           1           0   17.0578613      0.632356048       10.9133577    
         126         126           1           0   18.0513725       1.72846627       8.79252911    
         127         127           1           0   20.5880947       2.27504015       9.44021130    
         128         128           1           0   24.2780457       2.47103000       7.90521145    
         129         129           1           0   26.4263630       2.59315848       9.99015427    
         130         130           1           0   29.2123318       2.41948414       8.78571701    
         131         131           1           0   24.6872482       12.4702539       7.14519119    
         132         132           1           0   3.09953594       4.24204063       10.4913816    
         133         133           1           0   3.16502810       6.42719936       8.86399364    
         134         134           1           0   8.05908775       4.15502405       7.06077194    
         135         135           1           0   9.20684052       2.03754640       8.64704418    
         136         136           1           0   10.7561340       4.79651546       7.88653851    
         137         137           1           0   11.5817795       2.87303257       10.2701750    
         138         138           1           0   12.0145216       7.23642302       8.23169804    
         139         139           1           0   14.8698254       4.50807762       8.29939175    
         140         140           1           0   13.6703129       4.98879480       10.8417101    
         141         141           1           0   8.08226109       4.50167942      -6.54446185E-02
         142         142           1           0   17.5102482       4.19857168       8.40503788    
         143         143           1           0   21.5598316       5.92034149       9.74723625    
         144         144           1           0   23.8237724       5.58385515       8.14587879    
         145         145           1           0   14.8624039       9.09645176      0.795623958    
         146         146           1           0  0.890839279       7.39863300       10.0396633    
         147         147           1           0   2.57118988       10.2444477       10.9773407    
         148         148           1           0   5.38168621       9.36753082       10.7006664    
         149         149           1           0   5.41360521       7.99145508       8.49231529    
         150         150           1           0   7.42490721       6.15015936       9.37440300    
         151         151           1           0   9.49707890       7.87765884       9.42792511    
         152         152           1           0   27.2966518       12.6437149       11.3614254    
         153         153           1           0   28.1454697       12.0701113      0.131071702    
         154         154           1           0   18.0747280       8.26946831       9.45572090    
         155         155           1           0   19.3861485       10.4853601       9.86790562    
         156         156           1           0   23.2395267       10.1919594       9.52523899    
         157         157           1           0   21.0186462       10.6379595       7.78490686    
         158         158           1           0   22.8326340       7.87698984       11.0869408    
         159         159           1           0   25.7555084       10.3606768       8.19611740    
         160         160           1           0   26.3114738       6.67382860       9.02425671    
         161         161           1           0   16.0886173       8.07721242E-02   7.07439566    
         162         162           1           0   19.7083797       4.43503809       1.75904095    
         163         163           1           0   28.1062412       11.6789112       9.05010605    
         164         164           1           0  0.884221911       11.5486937       9.21766758    
         165         165           1           0   26.4043484       8.93448448       10.8461504    
         166         166           1           0   30.3610573       13.9184017       3.42302471E-02
         167         167           1           0   16.9793396       4.90992832       11.2384453    
         168         168           1           0   26.1037693      0.179565519       7.46906328    
         169         169           1           0   11.0897989       14.4918222       5.12098932    
         170         170           1           0   13.4995279       14.1866837       5.09869242    
         171         171           1           0   6.91735601       14.8945789       5.02247143    
         172         172           1           0   26.4080563       14.4128771       5.57273722    
         173         173           1           0   13.2184134       5.01944870E-02   7.47319937    
         174         174           1           0   30.2863693       8.79368401       11.5266161    
         175         175           1           0   30.3738899      0.489701599       1.43762016    
         176         176           1           0   23.7569294       15.2324400       4.61018991    
         177         177           1           0   18.1984367       7.46237326       11.9592352    
         178         178           1           0   22.1530190       12.6338615       4.83522788E-02
         179         179           1           0   1.70095074       2.69246101       14.9648275    
         180         180           1           0  0.269377470       5.22188520       14.9259624    
         181         181           1           0   5.43882179       1.17537820       13.1476774    
         182         182           1           0   8.27792263       1.31617272       13.7498064    
         183         183           1           0   28.6817894       5.39096165       22.9129772    
         184         184           1           0   12.4175825       3.50621581       15.9497013    
         185         185           1           0   12.0800257       1.44542348       13.9971046    
         186         186           1           0   19.0654411       1.97385466       15.2086582    
         187         187           1           0   17.9692631       2.83169842       12.6987581    
         188         188           1           0  0.849669516       4.67947769       22.5115585    
         189         189           1           0   22.6432362       2.09249830       13.2108707    
         190         190           1           0   1.36194062       13.3007030       12.8197308    
         191         191           1           0   25.4681911       2.70034957       13.3741140    
         192         192           1           0   14.7503119       1.17217302       12.9374199    
         193         193           1           0   27.2836971      0.805483043       12.5137405    
         194         194           1           0   1.84864855       7.21781158       14.8401432    
         195         195           1           0   20.5084190       10.6663637       12.1988096    
         196         196           1           0   4.21876431       3.46224213       16.1100273    
         197         197           1           0   4.30289793       5.65918207       14.5646248    
         198         198           1           0   9.40317154       5.18604946       13.2038164    
         199         199           1           0   12.8382206       6.22430086       15.4749937    
         200         200           1           0   15.7305641       5.27751207       15.7655354    
         201         201           1           0   8.87025833      0.842510879       21.6816578    
         202         202           1           0   20.6245880       8.02855587       12.5947533    
         203         203           1           0   21.7251434       7.53548002       15.0649385    
         204         204           1           0   26.2582550       7.18229198       15.1831741    
         205         205           1           0   26.1417217       4.24823809       15.7142019    
         206         206           1           0  0.925720096       14.0607843       22.2324524    
         207         207           1           0   28.3784142       7.61485147       12.7436438    
         208         208           1           0   20.5368824       8.63299465       23.0569401    
         209         209           1           0   27.9144115       11.9971266       23.9250393    
         210         210           1           0   5.67174768       8.02210903       15.3835802    
         211         211           1           0   6.88694572       8.45922947       13.0643530    
         212         212           1           0   29.2690163       11.5126266       21.4957867    
         213         213           1           0   11.3051662       7.04574871       13.0130205    
         214         214           1           0   26.1235962       15.0566063       19.4207573    
         215         215           1           0   11.4341679       7.07524729       24.0203457    
         216         216           1           0   13.7062578       10.6622267       23.9783783    
         217         217           1           0   24.6174240       9.96345520       15.6024742    
         218         218           1           0   28.2526360       9.72965813       14.3654366    
         219         219           1           0   1.71270144       10.9989319       14.2478685    
         220         220           1           0   29.4292202       12.7179775       12.8763552    
         221         221           1           0   5.43756866       12.7075157       16.7745552    
         222         222           1           0   30.3282146       8.20475483       23.8121567    
         223         223           1           0   4.76170731       14.4566069       22.5586948    
         224         224           1           0   4.70949221       14.1190500       14.4216347    
         225         225           1           0   23.1931190       11.6747150       23.5609035    
         226         226           1           0   18.6342201      0.605247498       23.4634686    
         227         227           1           0   13.6423359       8.46671104       22.6182995    
         228         228           1           0   25.1128120       14.0983105       13.8513775    
         229         229           1           0   23.1563225       13.6599121       21.5312443    
         230         230           1           0   25.4363804       10.8460884       12.7075768    
         231         231           1           0   25.3367558       12.5828934       16.3312321    
         232         232           1           0   19.9558601       11.6844463       21.1328068    
         233         233           1           0  0.592711091      0.873985767       16.6404457    
         234         234           1           0   2.83232498       1.77485442       18.2691116    
         235         235           1           0   4.27517605       1.28213131       20.8085098    
         236         236           1           0   4.85551739       10.3726587       23.9979019    
         237         237           1           0   5.76262617       1.69461930       15.9140005    
         238         238           1           0   8.31684685       1.85966933       17.3934097    
         239         239           1           0   8.23972607       2.91372776       19.9670525    
         240         240           1           0   12.5625801       2.14943290       18.1227760    
         241         241           1           0   16.9478970      0.739948392       16.2635384    
         242         242           1           0   15.4872799       1.87155986       18.2163181    
         243         243           1           0   22.8055058       1.42435515       17.3373337    
         244         244           1           0   20.2482872       2.12215447       19.5423374    
         245         245           1           0   21.3945808      0.706253588       15.0949841    
         246         246           1           0   27.3189125       1.33603692       19.1491909    
         247         247           1           0   2.24022627       2.02471948       12.3149166    
         248         248           1           0   2.31416035       6.42683458       18.9740868    
         249         249           1           0   4.96601105       5.58623362       19.1872044    
         250         250           1           0   5.42441940       3.54428363       20.9064922    
         251         251           1           0   9.40627289       6.29904938       19.7566109    
         252         252           1           0   10.9383554       3.77373672       19.7041225    
         253         253           1           0   9.50304031       3.92113066       15.9469643    
         254         254           1           0   16.7579517       4.13083506       18.1134090    
         255         255           1           0   15.8111515       6.13884687       19.8443146    
         256         256           1           0   19.4158897       3.54078650       17.1998177    
         257         257           1           0   19.1022987       7.91792202       18.0094051    
         258         258           1           0   20.6402798       5.98112631       17.0991573    
         259         259           1           0   23.4052029       3.87230945       16.7110596    
         260         260           1           0   26.3425522       6.38492870       19.4225216    
         261         261           1           0   24.2981167       4.43104792       19.3716145    
         262         262           1           0   30.2368011       5.90382862       15.5886078    
         263         263           1           0   27.8860073       3.24705148       17.5241756    
         264         264           1           0   28.7464428       5.56230640       18.2419853    
         265         265           1           0   1.41149747       8.40023327       17.5321426    
         266         266           1           0   3.85808945       10.3670626       15.7536154    
         267         267           1           0   9.70095158       6.46381378       16.6153889    
         268         268           1           0   6.96418858       7.13406134       17.5559235    
         269         269           1           0   7.22146082       9.51745415       19.2592773    
         270         270           1           0   20.5398636       9.90640450       17.8736534    
         271         271           1           0   21.8902111       10.0740881       15.6309376    
         272         272           1           0   25.7443790       9.22070789       18.2380924    
         273         273           1           0   24.7511101       11.1025105       19.8600674    
         274         274           1           0   28.3610802       8.30146027       17.1323071    
         275         275           1           0   28.8893719       9.16682148       19.9993477    
         276         276           1           0   2.68688369       10.8785677       18.5170784    
         277         277           1           0   29.1509018       13.9435215       15.3129053    
         278         278           1           0   5.78730154       11.5084906       19.3854198    
         279         279           1           0   1.30666637       13.2033291       17.9684105    
         280         280           1           0   5.21125984       4.09659338       12.1800766    
         281         281           1           0   22.5111332      0.953405857       23.7744465    
         282         282           1           0   9.83974457       10.2757711       20.5419922    
         283         283           1           0   21.6623154       13.9249096       17.4717484    
         284         284           1           0   24.0763016       13.2453566       18.3857651    
         285         285           1           0  0.972096145       8.48787689       12.3529301    
         286         286           1           0   28.0001068       12.8504457       19.6337509    
         287         287           1           0   27.9020042       11.7886934       17.2958527    
         288         288           1           0   12.5137405       12.7602482       22.9934444    
         289         289           1           0   29.1611805       4.60664415       12.8562851    
         290         290           1           0   18.6000996      0.173698723       20.5863914    
         291         291           1           0   8.09041119       2.69571495       23.8198795    
         292         292           1           0   12.6638470      0.504794955       23.0220909    
         293         293           1           0   12.2790318       3.17781281       21.8894215    
         294         294           1           0   16.0606995       1.27095842       20.7503052    
         295         295           1           0   14.6035500       4.80557728       21.9971962    
         296         296           1           0   8.63938141       12.1933355       22.4456291    