LAMMPS data file via write_data, version 8 Feb 2023, timestep = 246

2058 atoms
2 atom types

0 11.323 xlo xhi
0 11.323 ylo yhi
0 18.4630191414149 zlo zhi

Masses

1 1
2 1

Atoms # atomic

1 2 9.705710012810346 10.514519180544543 8.89690084507615 0 0 0
2 2 10.514519180544543 9.705710012810346 8.89690084507615 0 0 0
3 2 8.088091677341955 10.514519180544543 8.89690084507615 0 0 0
4 2 8.89690084507615 9.705710012810346 8.89690084507615 0 0 0
5 2 6.470473341873564 10.514519180544543 8.89690084507615 0 0 0
6 2 7.27928250960776 9.705710012810346 8.89690084507615 0 0 0
7 2 4.852855006405173 10.514519180544543 8.89690084507615 0 0 0
8 2 5.661664174139369 9.705710012810346 8.89690084507615 0 0 0
9 2 3.235236670936782 10.514519180544543 8.89690084507615 0 0 0
10 2 4.044045838670978 9.705710012810346 8.89690084507615 0 0 0
11 2 1.617618335468391 10.514519180544543 8.89690084507615 0 0 0
12 2 2.4264275032025866 9.705710012810346 8.89690084507615 0 0 0
13 2 0 10.514519180544543 8.89690084507615 0 0 0
14 2 0.8088091677341955 9.705710012810346 8.89690084507615 0 0 0
15 2 9.705710012810346 8.89690084507615 8.89690084507615 0 0 0
16 2 10.514519180544543 8.088091677341955 8.89690084507615 0 0 0
17 2 8.088091677341955 8.89690084507615 8.89690084507615 0 0 0
18 2 8.89690084507615 8.088091677341955 8.89690084507615 0 0 0
19 2 6.470473341873564 8.89690084507615 8.89690084507615 0 0 0
20 2 7.27928250960776 8.088091677341955 8.89690084507615 0 0 0
21 2 4.852855006405173 8.89690084507615 8.89690084507615 0 0 0
22 2 5.661664174139369 8.088091677341955 8.89690084507615 0 0 0
23 2 3.235236670936782 8.89690084507615 8.89690084507615 0 0 0
24 2 4.044045838670978 8.088091677341955 8.89690084507615 0 0 0
25 2 1.617618335468391 8.89690084507615 8.89690084507615 0 0 0
26 2 2.4264275032025866 8.088091677341955 8.89690084507615 0 0 0
27 2 0 8.89690084507615 8.89690084507615 0 0 0
28 2 0.8088091677341955 8.088091677341955 8.89690084507615 0 0 0
29 2 9.705710012810346 7.27928250960776 8.89690084507615 0 0 0
30 2 10.514519180544543 6.470473341873564 8.89690084507615 0 0 0
31 2 8.088091677341955 7.27928250960776 8.89690084507615 0 0 0
32 2 8.89690084507615 6.470473341873564 8.89690084507615 0 0 0
33 2 6.470473341873564 7.27928250960776 8.89690084507615 0 0 0
34 2 7.27928250960776 6.470473341873564 8.89690084507615 0 0 0
35 2 4.852855006405173 7.27928250960776 8.89690084507615 0 0 0
36 2 5.661664174139369 6.470473341873564 8.89690084507615 0 0 0
37 2 3.235236670936782 7.27928250960776 8.89690084507615 0 0 0
38 2 4.044045838670978 6.470473341873564 8.89690084507615 0 0 0
39 2 1.617618335468391 7.27928250960776 8.89690084507615 0 0 0
40 2 2.4264275032025866 6.470473341873564 8.89690084507615 0 0 0
41 2 0 7.27928250960776 8.89690084507615 0 0 0
42 2 0.8088091677341955 6.470473341873564 8.89690084507615 0 0 0
43 2 9.705710012810346 5.661664174139369 8.89690084507615 0 0 0
44 2 10.514519180544543 4.852855006405173 8.89690084507615 0 0 0
45 2 8.088091677341955 5.661664174139369 8.89690084507615 0 0 0
46 2 8.89690084507615 4.852855006405173 8.89690084507615 0 0 0
47 2 6.470473341873564 5.661664174139369 8.89690084507615 0 0 0
48 2 7.27928250960776 4.852855006405173 8.89690084507615 0 0 0
49 2 4.852855006405173 5.661664174139369 8.89690084507615 0 0 0
50 2 5.661664174139369 4.852855006405173 8.89690084507615 0 0 0
51 2 3.235236670936782 5.661664174139369 8.89690084507615 0 0 0
52 2 4.044045838670978 4.852855006405173 8.89690084507615 0 0 0
53 2 1.617618335468391 5.661664174139369 8.89690084507615 0 0 0
54 2 2.4264275032025866 4.852855006405173 8.89690084507615 0 0 0
55 2 0 5.661664174139369 8.89690084507615 0 0 0
56 2 0.8088091677341955 4.852855006405173 8.89690084507615 0 0 0
57 2 9.705710012810346 4.044045838670978 8.89690084507615 0 0 0
58 2 10.514519180544543 3.235236670936782 8.89690084507615 0 0 0
59 2 8.088091677341955 4.044045838670978 8.89690084507615 0 0 0
60 2 8.89690084507615 3.235236670936782 8.89690084507615 0 0 0
61 2 6.470473341873564 4.044045838670978 8.89690084507615 0 0 0
62 2 7.27928250960776 3.235236670936782 8.89690084507615 0 0 0
63 2 4.852855006405173 4.044045838670978 8.89690084507615 0 0 0
64 2 5.661664174139369 3.235236670936782 8.89690084507615 0 0 0
65 2 3.235236670936782 4.044045838670978 8.89690084507615 0 0 0
66 2 4.044045838670978 3.235236670936782 8.89690084507615 0 0 0
67 2 1.617618335468391 4.044045838670978 8.89690084507615 0 0 0
68 2 2.4264275032025866 3.235236670936782 8.89690084507615 0 0 0
69 2 0 4.044045838670978 8.89690084507615 0 0 0
70 2 0.8088091677341955 3.235236670936782 8.89690084507615 0 0 0
71 2 9.705710012810346 2.4264275032025866 8.89690084507615 0 0 0
72 2 10.514519180544543 1.617618335468391 8.89690084507615 0 0 0
73 2 8.088091677341955 2.4264275032025866 8.89690084507615 0 0 0
74 2 8.89690084507615 1.617618335468391 8.89690084507615 0 0 0
75 2 6.470473341873564 2.4264275032025866 8.89690084507615 0 0 0
76 2 7.27928250960776 1.617618335468391 8.89690084507615 0 0 0
77 2 4.852855006405173 2.4264275032025866 8.89690084507615 0 0 0
78 2 5.661664174139369 1.617618335468391 8.89690084507615 0 0 0
79 2 3.235236670936782 2.4264275032025866 8.89690084507615 0 0 0
80 2 4.044045838670978 1.617618335468391 8.89690084507615 0 0 0
81 2 1.617618335468391 2.4264275032025866 8.89690084507615 0 0 0
82 2 2.4264275032025866 1.617618335468391 8.89690084507615 0 0 0
83 2 0 2.4264275032025866 8.89690084507615 0 0 0
84 2 0.8088091677341955 1.617618335468391 8.89690084507615 0 0 0
85 2 9.705710012810346 0.8088091677341955 8.89690084507615 0 0 0
86 2 10.514519180544543 0 8.89690084507615 0 0 0
87 2 8.088091677341955 0.8088091677341955 8.89690084507615 0 0 0
88 2 8.89690084507615 0 8.89690084507615 0 0 0
89 2 6.470473341873564 0.8088091677341955 8.89690084507615 0 0 0
90 2 7.27928250960776 0 8.89690084507615 0 0 0
91 2 4.852855006405173 0.8088091677341955 8.89690084507615 0 0 0
92 2 5.661664174139369 0 8.89690084507615 0 0 0
93 2 3.235236670936782 0.8088091677341955 8.89690084507615 0 0 0
94 2 4.044045838670978 0 8.89690084507615 0 0 0
95 2 1.617618335468391 0.8088091677341955 8.89690084507615 0 0 0
96 2 2.4264275032025866 0 8.89690084507615 0 0 0
97 2 0 0.8088091677341955 8.89690084507615 0 0 0
98 2 0.8088091677341955 0 8.89690084507615 0 0 0
99 1 5.670714991946576 4.673848542672674 9.935585812033741 0 0 0
100 1 5.214816200507828 7.475803438786427 14.535304730447308 0 0 0
101 1 7.498075600549374 9.891752082537568 8.885939308808611 0 0 0
102 1 3.677451307341777 5.3333131230375965 2.093013832081998 0 0 0
103 1 10.41663150281013 6.424551028584976 2.7018799910427296 0 0 0
104 1 5.48836756730152 1.3876078483930352 11.669221720021476 0 0 0
105 1 11.011880546358455 6.601631713866986 8.487992793711417 0 0 0
106 1 11.280821714646162 8.620185817619108 1.5540853676913358 0 0 0
107 1 6.817032556633665 2.7598966450495337 6.044715868416554 0 0 0
108 1 6.9399492440439 0.729260363752004 17.497056696176763 0 0 0
109 1 7.347113475637841 4.647707109889405 11.542500703628578 0 0 0
110 1 2.360382588028471 1.6468327159967817 11.819690901600751 0 0 0
111 1 3.910743087249866 2.167403907941671 8.580887022061443 0 0 0
112 1 9.262320611129303 9.357570390086464 15.944905318534985 0 0 0
113 1 9.138012727883236 9.898500235006061 11.372593765891754 0 0 0
114 1 8.179291298143962 9.854521438182477 5.570509225752035 0 0 0
115 1 1.1799237499321196 4.245062287463297 6.817612288490534 0 0 0
116 1 10.902291679780534 8.27399536228929 17.979759383135086 -1 0 0
117 1 4.214719998551029 7.8720495082375885 13.009251911744942 0 0 0
118 1 0.17766290982773345 7.265659737907335 6.979213595629253 0 0 0
119 1 10.550449487580847 3.959371472746862 6.284020860794948 0 0 0
120 1 5.3541274667565295 3.625565294124817 10.315414262499845 0 0 0
121 1 0.017236249334771473 4.98741600094876 3.031832605940215 1 0 0
122 1 8.842304199796148 1.2001437829612656 9.709902905022949 0 0 0
123 1 3.521927701148625 7.473715644255566 10.145182275255475 0 0 0
124 1 1.8001570380910017 4.10616489461573 18.12688631273073 0 0 0
125 1 4.792839409074755 9.58220878384364 9.038516058450186 0 0 0
126 1 10.219858663078547 3.1736599326945876 10.511843912803414 0 0 0
127 1 5.3085750193624754 10.528771597456787 9.359621765519927 0 0 0
128 1 4.743956504321811 4.9370259725535375 12.57723373774311 0 0 0
129 1 5.1792983264331784 9.755316654673976 17.694395157177347 0 0 0
130 1 0.9563472016955838 9.67199711258138 14.082750425991254 0 0 0
131 1 6.99996238887642 1.9036666185693147 6.7948477994449 0 0 0
132 1 6.604811736394611 2.876023612076906 7.113957063728055 0 0 0
133 1 2.1587252215938095 9.39404282254 14.912108726532951 0 0 0
134 1 8.623073984637857 7.003883343437398 14.437979864512794 0 0 0
135 1 7.555702111697879 9.29280696073421 12.38000583933033 0 0 0
136 1 5.484851726441901 2.0333736282840027 17.827855252878503 0 0 0
137 1 9.399996393361718 0.18468327513318292 0.4676909913066669 0 0 0
138 1 4.0598458665112895 6.841853688224912 12.62041274078382 0 0 0
139 1 4.295345411727763 5.506728776548094 4.825027702780605 0 0 0
140 1 6.340113132170855 9.823355242371465 6.221461163691639 0 0 0
141 1 5.342880269807988 4.879332324464674 15.359978204606366 0 0 0
142 1 5.907194207912233 3.388778599035141 12.566818778810644 0 0 0
143 1 3.9640357084961386 8.936964403517974 13.487834683595631 0 0 0
144 1 10.547224318413603 9.079103269979061 14.05616969827583 0 0 0
145 1 9.747655756561336 0.8231604365581252 15.375454687215376 0 0 0
146 1 1.9072551154478445 5.166356269073434 7.241185411420234 0 0 0
147 1 7.412923399077196 3.640303220190764 11.010874495591302 0 0 0
148 1 1.874018860910252 2.5276641023409523 0.6118343118768574 0 0 0
149 1 9.44171197032406 7.476724635242781 6.50348640781888 0 0 0
150 1 6.530321486530506 2.667673647268575 9.189275249712887 0 0 0
151 1 9.0378337150334 11.297501688731597 17.117522773708103 0 0 0
152 1 6.577716979228207 3.795667890040201 2.6484653937623714 0 0 0
153 1 10.342761962837438 10.95009739909903 0.2662250032171835 0 0 0
154 1 4.307851764433955 7.392958895138745 18.19885502955628 0 0 -1
155 1 4.23648507148247 8.985800061871734 4.679237862054503 0 0 0
156 1 8.036152272392155 0.7620607141235053 10.27395172650693 0 0 0
157 1 4.763055262376344 5.737851094439196 15.013167497312587 0 0 0
158 1 1.275460385634974 5.307752707398925 5.366476916247505 0 0 0
159 1 7.090547730220487 0.9976782890604198 4.906970551240595 0 0 0
160 1 7.126430092820391 8.813888764704373 8.880742577420124 0 0 0
161 1 6.528375840870227 9.561044744954469 8.347564535081254 0 0 0
162 1 10.681200726694607 5.7026179470645975 3.5921610031816984 0 0 0
163 1 6.741895211169164 0.8904297665052637 16.43210841507546 0 0 0
164 1 9.284643019416444 5.427591934467933 7.196887309708618 0 0 0
165 1 8.331904218862753 1.9246021651086689 12.666086432212504 0 0 0
166 1 10.715675271030578 8.977752456374407 15.15250631788975 0 0 0
167 1 0.15411479564468036 5.212062364102727 9.10314081983842 1 0 0
168 1 2.890975576741601 1.9770341102046651 4.070093667203657 0 0 0
169 1 10.479734669290814 4.800619946445209 0.7598526426958752 0 0 0
170 1 0.30146971284253804 8.31883406703707 7.2327438493912775 0 0 0
171 1 0.7294376952330791 3.190148275655734 9.317308386363942 0 0 0
172 1 3.1467370166718833 7.499374316080239 11.284416579358759 0 0 0
173 1 7.84781169032146 8.82963123413108 5.834712980194375 0 0 0
174 1 3.9057077971866083 5.781767295230694 3.088078043841081 0 0 0
175 1 2.279709795406783 0.6993106795374755 15.395536404618907 0 0 0
176 1 9.56192865580914 9.158387957052684 12.149449465096952 0 0 0
177 1 9.514337029290825 6.0795557651584735 2.2113952377154362 0 0 0
178 1 8.95942139444861 9.125533974354568 5.658159202718129 0 0 0
179 1 8.411022085440951 5.696407523564091 9.371348828247376 0 0 0
180 1 7.217459566263774 1.898378511807807 1.6466623397923483 0 0 0
181 1 1.9317519580602296 3.9156061279705088 2.3555060230806246 0 0 0
182 1 0.7431221628818275 11.263624547932945 10.168449923694961 0 -1 0
183 1 3.0966648823395295 5.821419180763809 9.66245083522436 0 0 0
184 1 0.8232452983958671 4.247813188398317 8.972467219075451 0 0 0
185 1 0.17551803518529205 0.32670103221474706 9.263975631712846 1 0 0
186 1 6.601617131764839 1.8934881468175913 16.83836588401764 0 0 0
187 1 5.799864894787787 7.94847074006813 0.5546987909896544 0 0 0
188 1 3.979749913039878 1.6698386294396612 15.465243890183952 0 0 0
189 1 0.7568300797846399 1.9406259584723788 0.22168954116741962 0 0 0
190 1 9.182637121486641 8.446479815521991 1.3485865065111018 0 0 0
191 1 1.8296411323957333 0.2391606623109468 10.062426781739228 0 0 0
192 1 0.9380192523086682 11.017521112829694 3.330255341693783 0 0 0
193 1 7.650334526746475 5.048280410395537 8.941667758509807 0 0 0
194 1 3.3968779729645533 7.111389341567466 1.4643111791625976 0 0 0
195 1 9.349787690298935 5.240419517908473 17.840959751997758 0 0 0
196 1 9.2483804468636 3.6619751694985 10.555225079434624 0 0 0
197 1 2.7162699004261945 7.768980886211134 0.8475868424821411 0 0 1
198 1 7.809098703743017 11.278742614711708 4.394421516135769 0 -1 0
199 1 9.755101637994505 8.467171438493452 16.493963044073215 0 0 0
200 1 6.5216619960436075 7.845480475725973 8.748822448728104 0 0 0
201 1 9.56156275790005 7.4881790682015 0.9490500216476265 0 0 0
202 1 4.383994420358979 4.349028062477726 5.610930384262722 0 0 0
203 1 5.037445992725078 6.187000744158409 0.6706456132355202 0 0 0
204 1 9.805125414129437 5.254338207584773 1.5309178701521051 0 0 0
205 1 2.5978754194014546 8.199623884029753 12.090851870928491 0 0 0
206 1 10.888659380182787 0.25059635176155676 2.0215828297550864 -1 0 0
207 1 3.1053408922013364 10.822004602630981 12.199797791060503 0 0 0
208 1 5.578160517512186 1.1168471464249121 3.482192920489375 0 0 0
209 1 4.526049236813681 7.037560316227307 17.160912407421417 0 0 0
210 1 5.116099006684662 4.475291890576104 2.046660033136279 0 0 0
211 1 10.852125080335965 9.305280156994858 2.4166400690357146 0 0 0
212 1 6.151788107338128 6.921979939159603 4.220318550167814 0 0 0
213 1 9.034872270658658 4.027735348110564 11.564278622269294 0 0 0
214 1 0.20066025142195812 6.926364336631189 17.49008724930444 0 0 0
215 1 9.899044926339393 3.519874124660399 15.585087348695167 0 0 0
216 1 4.924191265730123 7.940127930488195 11.226173220333463 0 0 0
217 1 0.922067213766436 5.499320413564528 2.7554556323648223 0 0 0
218 1 3.47922318741702 3.4904031425143143 0.3938849841577256 0 0 0
219 1 0.47416850003709105 8.233480475607083 8.829380445164663 0 0 0
220 1 6.789725217802042 8.621144061585818 0.6395141404743757 0 0 0
221 1 9.852531883134597 5.195898291804986 14.220037348929912 0 0 0
222 1 0.7883128277858549 10.728181015078986 14.944371895090612 0 0 0
223 1 2.6848796626855074 1.6653062594798331 0.495494017412786 0 0 0
224 1 9.514030952930678 9.237763150385225 6.618918816464527 0 0 0
225 1 10.563144853461255 10.055107968811804 15.331491515795543 0 0 0
226 1 5.233524496276093 2.1372000052679474 13.498038642165215 0 0 0
227 1 8.418529370112296 3.1564615747857045 11.10933575688786 0 0 0
228 1 5.780353747372638 7.985982945438751 7.845605049415826 0 0 0
229 1 2.15847386939809 6.110999116918247 9.113617104242968 0 0 0
230 1 7.834406927238557 7.826268644543073 13.397710357270213 0 0 0
231 1 10.1001645304747 8.318335463135174 13.392502378665482 0 0 0
232 1 9.662070123096418 5.515692431870811 0.4248644165788559 0 0 1
233 1 3.9592709998166717 4.972558116415858 6.427713235273605 0 0 0
234 1 10.359790482333203 1.47678712695257 14.685710378954289 0 0 0
235 1 5.868908335964145 7.814527999856821 5.173769356443902 0 0 0
236 1 9.348095289539238 4.430653127848157 7.65474954957411 0 0 0
237 1 5.024962628006191 1.8961435531769872 15.174853401773289 0 0 0
238 1 6.828053572734853 6.1432169675294395 7.866522651971583 0 0 0
239 1 0.8843896417692315 0.6715572334574268 3.811746962540878 1 0 0
240 1 0.3968657208454582 5.5464108618999335 11.293286927258917 0 0 0
241 1 7.088829520525144 8.383954320300385 12.716998089250778 0 0 0
242 1 11.029613944256509 2.4867100843350802 16.566440565504607 0 0 0
243 1 2.594742243887618 3.522981988882313 5.519968344553161 0 0 0
244 1 2.496209370062704 5.31728771974565 13.053615982412625 0 0 0
245 1 3.3309883288392497 5.081145799795592 16.948225560812563 0 0 0
246 1 4.896141603981743 10.627149718766786 11.66431477048769 0 0 0
247 1 4.840657508563345 5.309960937958699 5.742671912757782 0 0 0
248 1 0.592068696855199 7.4678354178917274 10.92792339466985 0 0 0
249 1 8.320955750740643 3.0373270059980038 9.215120320640718 0 0 0
250 1 10.372762311851645 6.165310830412107 14.278803528229037 0 0 0
251 1 9.043696814130591 9.059897482600775 10.071312437939454 0 0 0
252 1 3.6151178520730136 1.7018925031137861 11.891210745819926 0 0 0
253 1 10.160462360586278 0.5128725560664164 13.22256091038775 0 0 0
254 1 9.019959603172358 8.852627123134802 17.73046939531563 0 0 0
255 1 10.819548201700885 11.146829413597173 13.76242003848968 0 -1 0
256 1 1.8372619445638867 4.792197825367294 6.141553093750466 0 0 0
257 1 7.848807137462355 6.3765627175869435 12.961924621070523 0 0 0
258 1 9.563043157848952 5.3011604122735685 8.308482853503989 0 0 0
259 1 5.965689358759053 7.207431934522994 6.190334785990561 0 0 0
260 1 6.92347201517785 0.02307676216571627 3.643468402331167 0 0 0
261 1 2.8779364455128276 10.13493217006915 11.376176022729734 0 0 0
262 1 0.674670048837048 2.0970408076015064 2.3041639732895964 1 0 0
263 1 6.62304465600733 4.6491842297157735 9.400437913861124 0 0 0
264 1 0.2215145132192484 4.071533506012083 15.807329129664872 0 0 0
265 1 2.3328170505833774 1.0849393774182372 3.3183242796268817 0 0 0
266 1 7.6886843561934395 11.258921642883761 7.43652330244217 0 0 0
267 1 3.8877141303064024 10.252704588566928 11.711981081008606 0 0 0
268 1 0.8113123130941094 7.241045544839008 8.701349728757062 0 0 0
269 1 2.333611488780308 3.5685038847156916 11.575564119731519 0 0 0
270 1 4.0823687794833186 8.687058296538218 1.5030093606854755 0 0 0
271 1 8.114082900828043 5.34183675839583 13.248393579396199 0 0 0
272 1 1.9447357217499777 4.563354740021823 14.551228865557913 0 0 0
273 1 3.042764816649543 5.9649750386661955 13.88128041353127 0 0 0
274 1 1.529104851863989 5.242613166187508 3.5886791163084593 0 0 0
275 1 1.4247529971052946 8.186302691303407 0.366787229055249 0 0 1
276 1 4.643944025538007 1.3999467360749827 18.27803967285912 0 0 -1
277 1 7.666962862492649 6.613871977391324 14.916563917762305 0 0 0
278 1 5.082884005111895 7.933629804339313 15.56315489291649 0 0 0
279 1 3.4644464066022733 2.5496214321705915 2.0248273985709595 0 0 0
280 1 3.592346961029683 3.423432443150243 2.744248043375824 0 0 0
281 1 1.4613380752044882 8.903268587224597 15.706578199619143 0 0 0
282 1 4.547344159746895 6.941759537421923 1.5409673239102106 0 0 0
283 1 1.325549886441027 7.873713377916256 4.6119079543676875 0 0 0
284 1 4.24649293197396 6.650784310642686 10.005802503500192 0 0 0
285 1 6.098309450572182 0.20166511704661344 0.7485149176245878 0 0 0
286 1 2.262071631814997 0.5799852180736077 11.043704312733011 0 0 0
287 1 10.300015511462897 3.795752559529333 7.365979102678887 0 0 0
288 1 8.42245301202185 10.909299793576583 5.321672229905066 0 0 0
289 1 10.849631065080203 8.399349453595416 16.06973876833786 0 0 0
290 1 6.688639558718473 9.524267412696057 4.475546305687031 0 0 0
291 1 8.861983513217897 0.9278437875606136 16.48520542921286 0 0 0
292 1 11.2790819622291 5.741684977740982 2.2675327498360605 -1 0 0
293 1 0.3430570472009585 9.562962212824118 12.272760935886245 0 0 0
294 1 1.1601005609201327 9.635579454997005 12.996371435398533 0 0 0
295 1 6.4451677641988505 7.845307772647813 6.953968410392859 0 0 0
296 1 7.4568137403150105 10.476810377066238 5.074222616718617 0 0 0
297 1 2.894247348730811 4.39816326531244 0.15123425518061517 0 0 1
298 1 4.33619441071236 5.5626930685072296 17.17520426506847 0 0 0
299 1 2.326143291235723 11.048414721295433 13.906414520519473 0 0 0
300 1 8.299123396876416 4.344975789772586 13.71195956141335 0 0 0
301 1 6.5094344080585325 0.3215313133597 15.509801967138234 0 0 0
302 1 1.0435979432574076 10.336442703375441 11.981200040948988 0 0 0
303 1 5.870370863356413 8.665363691678381 12.478768806727668 0 0 0
304 1 6.403975017058274 11.219706115116693 1.8877141212205073 0 0 0
305 1 6.889695556604826 2.323959391050275 14.98928171103968 0 0 0
306 1 9.182329673829537 8.791475234564881 11.165739791080416 0 0 0
307 1 4.917876921820254 8.745976849910104 12.991105715701652 0 0 0
308 1 7.984969872342633 1.8047901352293052 7.87660385117989 0 0 0
309 1 7.706098281008707 10.266117491393814 16.30871941684409 0 0 0
310 1 5.599935986404089 7.0288361818574945 8.352516878266234 0 0 0
311 1 1.6778514854491873 7.078702223898794 9.344334635091554 0 0 0
312 1 6.79006918597627 2.041504875305912 5.230129968436155 0 0 0
313 1 8.772895766542447 5.715717061059728 4.515322109510149 0 0 0
314 1 8.600203166582512 1.8599005301775358 11.55598506073495 0 0 0
315 1 2.5560377726932906 1.648435873778118 13.826140989918844 0 0 0
316 1 9.299098496916981 5.199983592747294 15.1721183909892 0 0 0
317 1 11.081912982591934 1.4106842718499564 0.5544416337514408 0 0 0
318 1 7.6891859096745625 3.528577291994844 8.205258235441688 0 0 0
319 1 7.008751353026055 0.8036736034197558 11.859137193558706 0 0 0
320 1 5.334463606035964 3.2624667864545 17.678024816385513 0 0 0
321 1 7.811547973919404 6.028823873361394 8.38984150073487 0 0 0
322 1 10.688194056907879 10.403676423806498 10.580308571286036 0 0 0
323 1 4.098874856795284 6.625068603314984 7.09336019007311 0 0 0
324 1 10.32026281135828 0.7119257122531133 0.16238359489678275 0 0 0
325 1 10.855187409092164 6.533925914751123 7.4445090626462544 0 0 0
326 1 0.41725946357967697 0.47459565875971865 17.3938192655624 0 0 0
327 1 5.136234331931797 7.252115815461448 10.118621737252637 0 0 0
328 1 9.885338586922725 7.8912574044273605 9.203637108101772 0 0 0
329 1 1.2795555875592728 10.334603278866041 10.454124286332474 0 0 0
330 1 6.967902533294843 0.9490888446636309 14.105632949842548 0 0 0
331 1 3.11343272307476 3.488992518742611 15.73151432527693 0 0 0
332 1 7.697458415013636 4.710915225454296 5.1874029059792015 0 0 0
333 1 7.63166399438155 2.774076317737407 7.404274578835463 0 0 0
334 1 6.472731641690845 2.6277452314982215 12.03996933968041 0 0 0
335 1 4.435366301142688 1.8652617561815927 12.642392956571252 0 0 0
336 1 4.324443538669671 11.142054556591926 17.294146094156133 0 -1 0
337 1 8.533138536197756 7.831545973361598 0.7723255447890728 0 0 0
338 1 7.793375118772233 0.8796337655710404 16.136451141166738 0 0 0
339 1 11.027500927701468 5.487744595219597 6.827889603917414 0 0 0
340 1 0.42982422017301514 8.780943816798338 17.33811308439998 0 0 0
341 1 11.279465665105326 1.0671070346691984 4.2061644066840005 0 0 0
342 1 5.967498580026878 6.840792044531112 0.4235923057523116 0 0 0
343 1 2.3509324972761116 4.661976072393582 16.545925742312843 0 0 0
344 1 5.857467891025912 1.4997206030043708 10.539411404950954 0 0 0
345 1 5.1790400248210835 6.66988871913176 18.033981070611848 0 0 0
346 1 11.259708625135412 3.9380856271105915 3.230644181458146 0 0 0
347 1 6.4450201359665655 7.996534046688119 1.4787220943520112 0 0 0
348 1 4.108525900040173 5.558353264959874 0.5502337557569252 0 0 0
349 1 8.747868312681032 6.8020848945656605 0.5718211603640506 0 0 0
350 1 6.967575090171434 2.203001947271912 2.6854772809314573 0 0 0
351 1 2.023207916728958 1.6419706861474628 10.73584585149654 0 0 0
352 1 0.7549595055391999 4.5228880691525 3.810459262385156 1 0 0
353 1 9.842945308727034 7.636105814141867 4.26410554413067 0 0 0
354 1 1.1886986515077334 4.045366033351033 15.197869882028447 0 0 0
355 1 11.0071463380382 4.9774363819223 16.601989527879585 -1 0 0
356 1 7.76280979183051 9.564023868384114 3.4532457609267038 0 0 0
357 1 4.338574962633318 0.9014137940106434 6.129927301120653 0 0 0
358 1 2.0981165148772103 4.502163556375097 12.310705238520887 0 0 0
359 1 9.659815799178848 10.35134075384937 15.809283664506538 0 0 0
360 1 3.389280003508382 6.147707745819988 3.983228359981126 0 0 0
361 1 7.983152768680814 10.964165579790693 10.081850563667267 0 0 0
362 1 0.9832601520890317 5.068074825236861 0.928087614992563 0 0 0
363 1 10.27283251392456 5.649283498566763 7.563421592496125 0 0 0
364 1 6.087168321211713 10.327616485047043 10.178755553616067 0 0 0
365 1 5.730029546298693 0.7110590177722329 1.6551150636114698 0 0 0
366 1 9.998873640000733 2.650495953339063 16.23595338321873 0 0 0
367 1 1.0882883391454838 4.249492408654395 12.838255110458336 0 0 0
368 1 3.875358048601486 5.112228222594654 8.620854734347919 0 0 0
369 1 5.878121335561324 4.528132951643742 16.226564982479946 0 0 0
370 1 2.167828595832686 8.140637375961315 6.202552469455764 0 0 0
371 1 0.13738201270942577 8.911135447772827 9.597423934909777 0 0 0
372 1 5.443979530837546 3.0565261160986634 3.1910912199036754 0 0 0
373 1 4.1616081381919106 7.311349607920823 4.9267774900237 0 0 0
374 1 7.878976008560654 2.6630606088670956 15.486118368007661 0 0 0
375 1 5.809644392944798 3.5120435473024116 15.770058097625334 0 0 0
376 1 7.235880437380601 8.713368255426815 1.7908038653380622 0 0 0
377 1 5.297382437812644 10.45873275012539 3.503055839092245 0 0 0
378 1 7.862195120839545 2.389622255620328 6.357711277947001 0 0 0
379 1 6.224216830855614 5.032996975244556 13.54977396830132 0 0 0
380 1 2.1842303493175983 0.9305979108517282 18.263316189707183 0 0 -1
381 1 8.77430593261194 10.632167462989399 14.296457677084623 0 0 0
382 1 6.42440395450119 3.895231461053855 7.556216573735648 0 0 0
383 1 2.546047809845943 2.6285074273180062 15.365761191176281 0 0 0
384 1 8.879193428326442 6.198820667976588 8.552026143745344 0 0 0
385 1 3.596754393136027 5.255023639239069 18.054013664690117 0 0 0
386 1 5.716545618866851 4.453111602761785 11.007394881872449 0 0 0
387 1 0.9153285450427292 1.2913470698136027 16.927629980911004 0 0 0
388 1 9.553453870558252 6.656825775674473 13.69906389073053 0 0 0
389 1 2.269603655314637 4.255733824656521 1.4026594742099547 0 0 0
390 1 10.151773135833375 4.763612374872028 6.922774949610814 0 0 0
391 1 5.069600860084943 9.082611317594763 1.9423964876467548 0 0 0
392 1 5.166935763429966 9.085836656313463 15.88592616874947 0 0 0
393 1 3.935005681853377 8.472108942596433 16.666251482205354 0 0 0
394 1 10.606593199008003 0.9788434060883535 11.032116512682123 0 0 0
395 1 5.05151851932496 1.2282047594930665 9.766229045826638 0 0 0
396 1 5.2440683417802285 11.219295459051283 15.526228222727577 0 -1 0
397 1 8.754825550153377 5.287329195152301 2.333604347004196 0 0 0
398 1 9.71811422292325 0.4153462294576051 11.263791284694816 0 0 0
399 1 3.4278422015797565 0.6062247241376297 15.650038626907824 0 0 0
400 1 9.385150150282515 2.589869759833638 11.023808318886092 0 0 0
401 1 3.002282597619995 0.6025408837727506 13.64380435993281 0 0 0
402 1 2.564772270030915 1.1948700467214466 12.816362910303617 0 0 0
403 1 1.8321841371050633 0.13267801418513056 4.052020623807566 0 0 0
404 1 6.140170853537587 3.671704670736911 9.579104527891431 0 0 0
405 1 9.24685097230069 0.036034229537108886 12.746517390560179 0 0 0
406 1 9.380167524096995 1.857025123702529 12.34219181434676 0 0 0
407 1 4.435573386736308 6.056476782707824 16.091160894948622 0 0 0
408 1 1.031670484911091 0.4730332036516555 5.791894218846535 0 0 0
409 1 4.656613634689564 11.091279135207516 5.152116401488107 0 0 0
410 1 5.544974367194708 11.011076310267246 2.5286150138666406 0 0 0
411 1 3.5153266683592803 8.60211160068219 12.547134396154703 0 0 0
412 1 1.1118621508866888 3.2252586882765906 17.223195781266597 0 0 0
413 1 3.494052367746292 5.18387610076542 14.913643195493435 0 0 0
414 1 11.144446158018766 7.508415937120805 1.2505079079081967 -1 0 0
415 1 0.0779280091580786 5.384652915313823 5.082347553073267 1 0 0
416 1 4.094838855835275 9.23439117368161 9.852423918237518 0 0 0
417 1 10.580174175594145 10.371419877907247 13.00581594012425 0 0 0
418 1 6.56362056068731 0.4402852480934273 8.735178112517772 0 0 0
419 1 6.703157980877692 2.9890107414550675 13.856078493930093 0 0 0
420 1 0.04012415525070004 9.65058126604358 13.45882131805017 0 0 0
421 1 5.759528589650758 7.007714218867413 7.259962600780363 0 0 0
422 1 2.8576923325705517 3.765267788573833 8.933210666808403 0 0 0
423 1 4.711360343429882 4.493194168015984 8.3816225490937 0 0 0
424 1 0.4693393256237364 6.188401112434766 5.785087870521159 1 0 0
425 1 3.728800521933671 8.743534925481796 2.5540828838204543 0 0 0
426 1 8.014630793068513 3.8218391802939626 11.881174434463475 0 0 0
427 1 5.06979211479816 2.2249994217939153 10.186421900349858 0 0 0
428 1 5.605343985935656 7.245630556303684 17.0987182313033 0 0 0
429 1 6.332154274903167 3.9122971478284967 3.802635852513088 0 0 0
430 1 9.687308383143122 4.179014799853605 8.651504843252287 0 0 0
431 1 6.704677009185936 6.700935233271697 13.167534145220918 0 0 0
432 1 6.073682072150455 10.799807258785005 16.137559285056543 0 0 0
433 1 9.94399882981188 6.223213184919916 18.00426660604635 0 0 -1
434 1 1.2937674306949412 8.758965522155941 14.606583032469498 0 0 0
435 1 3.1446956994702093 7.286984306066085 5.271093395531159 0 0 0
436 1 8.179309283781977 9.406739588470128 18.160524628729718 0 0 0
437 1 6.123482393325948 0.645209334028204 11.265632989793176 0 0 0
438 1 11.003302629460254 6.05947592778744 10.654679106047242 -1 0 0
439 1 1.7815819773478752 2.3674515250134434 2.3020028029253226 0 0 0
440 1 4.065654620106025 8.216530514319883 5.513262478516502 0 0 0
441 1 9.725708995913369 7.126489853356429 14.715066537909678 0 0 0
442 1 7.805714706181211 8.393028198640923 0.14990068105827883 0 0 1
443 1 4.626816334275846 4.721058879159061 14.589916543387229 0 0 0
444 1 3.5413949937045373 0.2542696244053211 16.692393983016167 0 0 0
445 1 6.472360036062746 0.0963744879841004 13.547646840997011 0 0 0
446 1 3.0391903637741526 4.177304698663323 2.1718455273978963 0 0 0
447 1 8.968869713055483 6.076318153752131 6.3674590013974015 0 0 0
448 1 1.224244382732346 11.175797696357268 9.199182724958014 0 -1 0
449 1 3.2116989618164578 3.2251523443131274 14.684361244673488 0 0 0
450 1 5.094490916975597 10.806638935538121 17.93157233886076 0 0 -1
451 1 2.068134183598533 10.403750518786921 4.466445820004763 0 0 0